
 Working directory              : /scratch/st_ac131646.5390359/molpro.ACaeNyWiNU/
 Global scratch directory       : /scratch/st_ac131646.5390359/molpro.ACaeNyWiNU/
 Wavefunction directory         : /lustre/home/st/st_us-031110/st_ac131646/projects/icMRCC-paper/m-benzyne/m-benzyne_triplett_cc-pV5Z_ccsd/
 Main file repository           : /scratch/st_ac131646.5390359/molpro.ACaeNyWiNU/

 id        : koehnrobert

 Nodes     nprocs
 n0108        1
 GA implementation: MPI file
 GA implementation (serial work in mppx): MPI file

 Using customized tuning parameters: mindgm=1; mindgv=20; mindgc=4; mindgr=1; noblas=0; minvec=7
 default implementation of scratch files=df  


 Variables initialized (1015), CPU time= 0.01 sec
 memory,4000,m
 gthresh,orbital=1d-11,energy=1d-8
 gprint,orbital
 basis,cc-pV5Z
 angstrom
 geom={
 10
 C    0.00000000000000      0.00000000000000     -1.59636600000000
 C    0.00000000000000      1.06573100000000     -0.70322100000000
 C    0.00000000000000     -1.06573100000000     -0.70322100000000
 C    0.00000000000000      0.00000000000000      1.45056500000000
 C    0.00000000000000      1.19116100000000      0.68511900000000
 C    0.00000000000000     -1.19116100000000      0.68511900000000
 H    0.00000000000000      0.00000000000000     -2.68876600000000
 H    0.00000000000000      2.18351400000000      1.15224500000000
 H    0.00000000000000     -2.18351400000000      1.15224500000000
 H    0.00000000000000      0.00000000000000      2.55136500000000}
 {hf
 closed,10,2,6,1
 wf,,sym=3,spin=2}
 
 do i=1,3
 {ccsd
 core,4,0,2,0
 wf,,sym=3,spin=2}
 enddo
 
 Commands initialized (834), CPU time= 0.01 sec, 672 directives.
 Default parameters read. Elapsed time= 0.12 sec

 Checking input...
 Passed
1


                                         ***  PROGRAM SYSTEM MOLPRO  ***
                                       Copyright, TTI GmbH Stuttgart, 2015
                                    Version 2022.2 linked Fri Feb 25 15:46:38 2022


 **********************************************************************************************************************************
 LABEL *                                                                                 
  64 bit serial version                                                                  DATE: 26-Mar-22          TIME: 06:28:29  
 **********************************************************************************************************************************

 SHA1:             30aa63e668a0f6fada0aaaa022d4e13a0508f1bc
 **********************************************************************************************************************************

 Memory per process:      4000 MW
 Total memory per node:   4000 MW

 GA preallocation disabled
 GA check disabled

 Variable memory set to 4000.0 MW


 THRESHOLDS:

 ZERO    =  1.00D-12  ONEINT  =  1.00D-12  TWOINT  =  1.00D-11  PREFAC  =  1.00D-14  XXXXXX  =  1.00D-09  EORDER  =  1.00D-04
 ENERGY  =  1.00D-08  ETEST   =  0.00D+00  EDENS   =  0.00D+00  THRDEDEF=  1.00D-06  GRADIENT=  1.00D-05  STEP    =  1.00D-03
 ORBITAL =  1.00D-11  CIVEC   =  1.00D-05  COEFF   =  1.00D-04  PRINTCI =  5.00D-02  PUNCHCI =  9.90D+01  OPTGRAD =  3.00D-04
 OPTENERG=  1.00D-06  OPTSTEP =  3.00D-04  THRGRAD =  1.00D-10  COMPRESS=  1.00D-11  VARMIN  =  1.00D-07  VARMAX  =  1.00D-03
 THRDOUB =  0.00D+00  THRDIV  =  1.00D-05  THRRED  =  1.00D-07  THRPSP  =  1.00D+00  THRDC   =  1.00D-10  THRCS   =  1.00D-10
 THRNRM  =  1.00D-08  THREQ   =  0.00D+00  THRDE   =  1.00D+00  THRREF  =  1.00D-05  SPARFAC =  1.00D+00  THRDLP  =  1.00D-07
 THRDIA  =  1.00D-10  THRDLS  =  1.00D-07  THRGPS  =  0.00D+00  THRKEX  =  0.00D+00  THRDIS  =  2.00D-01  THRVAR  =  1.00D-10
 THRLOC  =  1.00D-06  THRGAP  =  1.00D-06  THRLOCT = -1.00D+00  THRGAPT = -1.00D+00  THRORB  =  1.00D-06  THRMLTP =  0.00D+00
 THRCPQCI=  1.00D-10  KEXTA   =  0.00D+00  THRCOARS=  0.00D+00  SYMTOL  =  1.00D-06  GRADTOL =  1.00D-06  THROVL  =  1.00D-08
 THRORTH =  1.00D-08  THRDLOVL= -1.00D+00  GRID    =  1.00D-06  GRIDMAX =  1.00D-03  DTMAX   =  0.00D+00  THROCCDE=  1.00D-01
 THROCCDE=  1.00D-01  THRPRINT=  2.50D-01


 SETTING BASIS          =    CC-PV5Z
 ZUNIT=ANG


 Geometry recognized as XYZ



 Recomputing integrals since basis changed


 Using spherical harmonics

 Library entry C      S cc-pV5Z              selected for orbital group  1
 Library entry C      P cc-pV5Z              selected for orbital group  1
 Library entry C      D cc-pV5Z              selected for orbital group  1
 Library entry C      F cc-pV5Z              selected for orbital group  1
 Library entry C      G cc-pV5Z              selected for orbital group  1
 Library entry C      H cc-pV5Z              selected for orbital group  1
 Library entry H      S cc-pV5Z              selected for orbital group  2
 Library entry H      P cc-pV5Z              selected for orbital group  2
 Library entry H      D cc-pV5Z              selected for orbital group  2
 Library entry H      F cc-pV5Z              selected for orbital group  2
 Library entry H      G cc-pV5Z              selected for orbital group  2


 PROGRAM * SEWARD (Integral evaluation for generally contracted gaussian basis sets)     Author: Roland Lindh, 1990

 Geometry written to block  1 of record 700


 Point group  C2v 



 ATOMIC COORDINATES

 NR  ATOM    CHARGE       X              Y              Z

   1  C       6.00    0.000000000    0.000000000   -3.016694535
   2  C       6.00    0.000000000    2.013939713   -1.328895095
   3  C       6.00    0.000000000   -2.013939713   -1.328895095
   4  C       6.00    0.000000000    0.000000000    2.741170576
   5  C       6.00    0.000000000    2.250968060    1.294687273
   6  C       6.00    0.000000000   -2.250968060    1.294687273
   7  H       1.00    0.000000000    0.000000000   -5.081031353
   8  H       1.00    0.000000000    4.126243449    2.177427478
   9  H       1.00    0.000000000   -4.126243449    2.177427478
  10  H       1.00    0.000000000    0.000000000    4.821381094

 Bond lengths in Bohr (Angstrom)

 1-2  2.627664384  1-3  2.627664384  1-7  2.064336819  2-5  2.634267807  3-6  2.634267807
     ( 1.390500110)     ( 1.390500110)     ( 1.092400000)     ( 1.393994491)     ( 1.393994491)

  4- 5  2.675662751   4- 6  2.675662751   4-10  2.080210518   5- 8  2.072652420   6- 9  2.072652420
       ( 1.415899752)       ( 1.415899752)       ( 1.100800000)       ( 1.096800427)       ( 1.096800427)

 Bond angles

  1-2-5  135.12736847   1-3-6  135.12736847   2-1-3  100.07004201   2-1-7  129.96497899

  2-5-4  117.56261291   2-5-8  120.36995809   3-1-7  129.96497899   3-6-4  117.56261291

  3-6-9  120.36995809   4-5-8  122.06742900   4-6-9  122.06742900   5-4-6  114.54999524

  5- 4-10  122.72500238   6- 4-10  122.72500238

 NUCLEAR CHARGE:                   40
 NUMBER OF PRIMITIVE AOS:        1150
 NUMBER OF SYMMETRY AOS:          880
 NUMBER OF CONTRACTIONS:          766   (  259A1  +  160B1  +  217B2  +  130A2  )
 NUMBER OF INNER CORE ORBITALS:     0   (    0A1  +    0B1  +    0B2  +    0A2  )
 NUMBER OF OUTER CORE ORBITALS:     6   (    4A1  +    0B1  +    2B2  +    0A2  )
 NUMBER OF VALENCE ORBITALS:       28   (   13A1  +    4B1  +    9B2  +    2A2  )


 NUCLEAR REPULSION ENERGY  184.34778994


 Eigenvalues of metric

         1 0.559E-05 0.122E-04 0.126E-04 0.174E-04 0.198E-04 0.208E-04 0.294E-04 0.408E-04
         2 0.207E-03 0.547E-03 0.747E-03 0.788E-03 0.912E-03 0.110E-02 0.124E-02 0.202E-02
         3 0.998E-06 0.133E-04 0.159E-04 0.205E-04 0.389E-04 0.439E-04 0.626E-04 0.829E-04
         4 0.459E-03 0.672E-03 0.901E-03 0.101E-02 0.159E-02 0.258E-02 0.338E-02 0.480E-02


 Contracted 2-electron integrals neglected if value below      1.0D-14
 AO integral compression algorithm  1   Integral accuracy      1.0D-14

     55034.249 MB (compressed) written to integral file ( 58.1%)


 NUMBER OF SORTED TWO-ELECTRON INTEGRALS:10870358911.     BUFFER LENGTH:  32768
 NUMBER OF SEGMENTS: 171  SEGMENT LENGTH:   63999810      RECORD LENGTH: 262144

 Memory used in sort:      64.29 MW

 SORT1 READ 11842021546. AND WROTE  9187911310. INTEGRALS IN  52658 RECORDS. CPU TIME:   600.37 SEC, REAL TIME:   670.18 SEC
 SORT2 READ  9187911310. AND WROTE 10870358911. INTEGRALS IN 209939 RECORDS. CPU TIME:   165.95 SEC, REAL TIME:   200.20 SEC

 FILE SIZES:   FILE 1: 55076.7 MBYTE,  FILE 4:110431.9 MBYTE,   TOTAL: 165508.5 MBYTE

 OPERATOR DM      FOR CENTER  0  COORDINATES:    0.000000    0.000000    0.000000


 **********************************************************************************************************************************
 DATASETS  * FILE   NREC   LENGTH (MB)   RECORD NAMES
              1      19    51282.34       500      610      700      900      950      970     1000      129      960     1100   
                                          VAR    BASINP    GEOM    SYMINP    ZMAT    AOBASIS   BASIS     P2S    ABASIS      S 
                                         1400     1410     1200     1210     1080     1600     1650     1300     1700   
                                           T        V       H0       H01     AOSYM     SMH    MOLCAS    ERIS     OPER   

 PROGRAMS   *        TOTAL       INT
 CPU TIMES  *      1554.60   1554.47
 REAL TIME  *      1688.10 SEC
 DISK USED  *       154.14 GB
 **********************************************************************************************************************************


 Program * Restricted Hartree-Fock

 Orbital guess generated from atomic densities. Full valence occupancy:   17   4  11   2

 Initial alpha occupancy:  11   2   7   1
 Initial beta  occupancy:  10   2   6   1

 NELEC=   40   SYM=3   MS2= 2   THRE=1.0D-10   THRD=1.0D-11   THRG=1.0D-11  HFMA2=F  DIIS_START=2   DIIS_MAX=10   DIIS_INCORE=F

 Level shifts:    0.00 (CLOSED)    0.00 (OPEN)    0.30 (GAP_MIN)

 ITER           ETOT              DE          GRAD        DDIFF     DIIS  NEXP   TIME(IT)  TIME(TOT)  DIAG
   1     -229.37927589    -229.37927589     0.00D+00     0.30D-01     0     0      38.42     71.84    start
   2     -229.44434064      -0.06506475     0.26D-02     0.25D-02     1     0      38.21    110.05    diag2
   3     -229.45504362      -0.01070298     0.10D-02     0.10D-02     2     0      38.18    148.23    diag2
   4     -229.45797563      -0.00293201     0.48D-03     0.51D-03     3     0      38.18    186.41    diag2
   5     -229.45832850      -0.00035287     0.15D-03     0.18D-03     4     0      38.24    224.65    diag2
   6     -229.45840549      -0.00007699     0.66D-04     0.99D-04     5     0      38.28    262.93    diag2
   7     -229.45841764      -0.00001215     0.23D-04     0.40D-04     6     0      38.41    301.34    diag2
   8     -229.45841948      -0.00000183     0.84D-05     0.19D-04     7     0      38.21    339.55    fixocc
   9     -229.45841970      -0.00000022     0.32D-05     0.66D-05     8     0      38.14    377.69    diag2
  10     -229.45841975      -0.00000005     0.13D-05     0.27D-05     9     0      38.33    416.02    diag2/orth
  11     -229.45841975      -0.00000001     0.55D-06     0.12D-05     9     0      38.20    454.22    diag2
  12     -229.45841976      -0.00000000     0.17D-06     0.33D-06     9     0      38.25    492.47    diag2
  13     -229.45841976      -0.00000000     0.64D-07     0.13D-06     9     0      38.21    530.68    diag2
  14     -229.45841976      -0.00000000     0.16D-07     0.31D-07     9     0      38.11    568.79    diag2
  15     -229.45841976       0.00000000     0.68D-08     0.11D-07     9     0      38.20    606.99    diag2
  16     -229.45841976       0.00000000     0.26D-08     0.45D-08     9     0      38.21    645.20    diag2
  17     -229.45841976      -0.00000000     0.81D-09     0.15D-08     9     0      38.17    683.37    diag2
  18     -229.45841976      -0.00000000     0.29D-09     0.57D-09     9     0      38.26    721.63    diag2
  19     -229.45841976       0.00000000     0.95D-10     0.33D-09     9     0      38.14    759.77    diag2
  20     -229.45841976      -0.00000000     0.39D-10     0.17D-09     9     0      38.22    797.99    diag2/orth
  21     -229.45841976       0.00000000     0.14D-10     0.10D-09     9     0      38.14    836.13    diag2
  22     -229.45841976       0.00000000     0.51D-11     0.13D-09     9     0      38.24    874.37    diag2
  23     -229.45841976      -0.00000000     0.21D-11     0.74D-10     9     0      38.30    912.67    diag2
  24     -229.45841976      -0.00000000     0.16D-11     0.75D-10     9     0      38.18    950.85    diag2
  25     -229.45841976      -0.00000000     0.14D-11     0.33D-10     9     0      38.20    989.05    diag2
  26     -229.45841976      -0.00000000     0.13D-11     0.24D-10     9     0      38.31   1027.36    diag2
  27     -229.45841976       0.00000000     0.10D-11     0.20D-10     9     0      38.17   1065.53    diag2
  28     -229.45841976       0.00000000     0.99D-12     0.17D-10     9     0      38.30   1103.83    diag2
  29     -229.45841976      -0.00000000     0.11D-11     0.15D-10     9     0      38.04   1141.87    diag2
  30     -229.45841976       0.00000000     0.87D-12     0.93D-11     9     0      38.18   1180.05    diag2/orth
  31     -229.45841976       0.00000000     0.86D-12     0.37D-10     0     0      38.21   1218.26    diag

 Final alpha occupancy:  11   2   7   1
 Final beta  occupancy:  10   2   6   1

 !RHF STATE 1.3 Energy               -229.458419755588
  RHF One-electron energy            -673.573503505829
  RHF Two-electron energy             259.767293810963
  RHF Kinetic energy                  228.954818762214
  RHF Nuclear energy                  184.347789939278
  RHF Virial quotient                  -1.002199564945

 !RHF STATE 1.3 Dipole moment           0.00000000     0.00000000     0.19222990
 Dipole moment /Debye                   0.00000000     0.00000000     0.48859967

 ELECTRON ORBITALS
 =================

  Orbital  Occupation    Energy    Cen Mu Typ  Coefficients
    1.1     2.00000   -11.26390     4  1  s    0.99236
    2.1     2.00000   -11.26377     1  1  s    0.43864    2  1  s    0.89083
    3.1     2.00000   -11.26157     1  1  s    0.89906    2  1  s   -0.44097
    4.1     2.00000   -11.24633     5  1  s    0.99995
    5.1     2.00000    -1.15838     1  2  s    0.38367    2  2  s    0.53810    4  2  s    0.35450    5  2  s    0.50338
    6.1     2.00000    -1.03347     1  2  s    0.55262    2  2  s    0.31819    4  2  s   -0.49825    5  2  s   -0.39956
    7.1     2.00000    -0.82894     1  2  s    0.35593    2  2  s   -0.28938    2  1  pz  -0.36881    4  2  s    0.49546
                                    5  2  s   -0.28114    5  1  pz   0.36848    7  1  s    0.27979   10  1  s    0.37485
    8.1     2.00000    -0.70118     1  1  pz  -0.40620    5  2  s    0.28671    5  1  py   0.44534    7  1  s    0.50158
                                    8  1  s    0.58780
    9.1     2.00000    -0.64007     1  1  pz   0.41567    4  1  pz   0.50370    5  1  py   0.38907    7  1  s   -0.46478
                                    8  1  s    0.31216   10  1  s    0.50608
   10.1     2.00000    -0.55907     1  1  pz   0.31557    2  1  pz  -0.40094    4  1  pz  -0.40946    5  1  pz   0.51896
                                    7  1  s   -0.29703    8  1  s    0.41068   10  1  s   -0.51400
   11.1     1.00000    -0.48369     2  2  s    0.41461    2  1  pz  -0.46522    2  1  py   0.71486
    1.2     2.00000    -0.51585     1  1  px   0.34838    2  1  px   0.47665    4  1  px   0.30200    5  1  px   0.44936
    2.2     2.00000    -0.35588     1  1  px   0.50016    2  1  px   0.31189    4  1  px  -0.47213    5  1  px  -0.37467
    1.3     2.00000   -11.26335     2  1  s    1.00064
    2.3     2.00000   -11.24638     5  1  s    1.00090
    3.3     2.00000    -0.98692     2  2  s    0.54970    5  2  s    0.73865    8  1  s    0.30415
    4.3     2.00000    -0.76443     1  1  py   0.42814    2  2  s    0.64998    4  1  py  -0.31222    5  2  s   -0.34219
                                    5  1  pz  -0.37170    8  1  s   -0.34470
    5.3     2.00000    -0.62086     1  1  py  -0.47462    2  1  py   0.26746    2  1  pz   0.59283    4  1  py  -0.37102
                                    5  1  pz  -0.54721
    6.3     2.00000    -0.54876     4  1  py  -0.45024    5  1  py   0.70989    8  1  s    0.70876
    7.3     1.00000    -0.36385     1  1  py  -0.27016    2  1  py   0.91451    2  1  pz  -0.30710
    1.4     2.00000    -0.33658     2  1  px   0.57272    5  1  px   0.64170


 HOMO      1.4    -0.336584 =      -9.1589eV
 LUMO     12.1     0.093783 =       2.5520eV
 LUMO-HOMO         0.430366 =      11.7109eV

 Orbitals saved in record  2100.2


 **********************************************************************************************************************************
 DATASETS  * FILE   NREC   LENGTH (MB)   RECORD NAMES
              1      19    51282.34       500      610      700      900      950      970     1000      129      960     1100   
                                          VAR    BASINP    GEOM    SYMINP    ZMAT    AOBASIS   BASIS     P2S    ABASIS      S 
                                         1400     1410     1200     1210     1080     1600     1650     1300     1700   
                                           T        V       H0       H01     AOSYM     SMH    MOLCAS    ERIS     OPER   

              2       4        5.45       700     1000      520     2100   
                                         GEOM     BASIS   MCVARS     RHF  

 PROGRAMS   *        TOTAL    HF-SCF       INT
 CPU TIMES  *      2772.87   1218.27   1554.47
 REAL TIME  *      3116.79 SEC
 DISK USED  *       154.14 GB
 **********************************************************************************************************************************

 DO I                   =         1.00000000   


 PROGRAM * CCSD (Unrestricted open-shell coupled cluster)     Authors: C. Hampel, H.-J. Werner, 1991, M. Deegan, P.J. Knowles, 1992


 Convergence thresholds:  THRVAR = 1.00D-08  THRDEN = 1.00D-08

 Number of core orbitals:           6 (   4   0   2   0 )
 Number of closed-shell orbitals:  13 (   6   2   4   1 )
 Number of active  orbitals:        2 (   1   0   1   0 )
 Number of external orbitals:     745 ( 248 158 210 129 )

 Number of N-1 electron functions:              28
 Number of N-2 electron functions:             378
 Number of singly external CSFs:              6026
 Number of doubly external CSFs:          40616588
 Total number of CSFs:                    40622614

 Molecular orbitals read from record     2100.2  Type=RHF/CANONICAL  

 Integral transformation finished. Total CPU: 214.20 sec, npass=  1  Memory used: 265.16 MW

 Starting RMP2 calculation, locsing= 0

 ITER.      SQ.NORM     CORR.ENERGY   TOTAL ENERGY   ENERGY CHANGE        DEN1      VAR(S)    VAR(P)  DIIS     TIME
   1      1.32150457    -0.95654808  -230.41496783    -0.95654808    -0.00479019  0.51D-04  0.22D-02  1  1   250.80
   2      1.32727010    -0.96180783  -230.42022759    -0.00525976    -0.00001510  0.13D-05  0.89D-05  2  2   252.88
   3      1.32754159    -0.96193504  -230.42035480    -0.00012721    -0.00000008  0.29D-07  0.33D-07  3  3   255.14
   4      1.32754873    -0.96193612  -230.42035587    -0.00000107    -0.00000000  0.62D-09  0.28D-09  4  4   257.57
   5      1.32754889    -0.96193613  -230.42035589    -0.00000002    -0.00000000  0.13D-10  0.52D-11  5  5   260.18
   6      1.32754890    -0.96193614  -230.42035589    -0.00000001    -0.00000000  0.11D-12  0.64D-13  6  6   262.97

 Norm of t1 vector:      0.05578697      S-energy:    -0.00409493      T1 diagnostic:  0.00068743
 Norm of t2 vector:      0.56959346      P-energy:    -0.95784121
                                         Alpha-Beta:  -0.72078405
                                         Alpha-Alpha: -0.13177694
                                         Beta-Beta:   -0.10528022

 Spin contamination <S**2-Sz**2-Sz>     0.00068033
  Reference energy                   -229.458419755589
  RHF-RMP2 correlation energy          -0.961936138806
 !RHF-RMP2 energy                    -230.420355894395

 Starting UCCSD calculation

 ITER.      SQ.NORM     CORR.ENERGY   TOTAL ENERGY   ENERGY CHANGE        DEN1      VAR(S)    VAR(P)  DIIS     TIME
   1      1.31277126    -0.93814083  -230.39656059    -0.93814083    -0.02564666  0.51D-02  0.56D-02  1  1   517.21
   2      1.34087371    -0.96248193  -230.42090169    -0.02434110    -0.00287824  0.40D-03  0.11D-02  2  2   771.23
   3      1.35497096    -0.96805229  -230.42647204    -0.00557035    -0.00048247  0.23D-03  0.14D-03  3  3  1026.44
   4      1.36324712    -0.97030181  -230.42872157    -0.00224953    -0.00011412  0.56D-04  0.36D-04  4  4  1281.90
   5      1.36821481    -0.97111469  -230.42953444    -0.00081287    -0.00002762  0.20D-04  0.64D-05  5  5  1537.63
   6      1.37066706    -0.97135766  -230.42977742    -0.00024297    -0.00000661  0.45D-05  0.18D-05  6  6  1793.69
   7      1.37165214    -0.97143448  -230.42985423    -0.00007682    -0.00000185  0.13D-05  0.50D-06  6  1  2054.06
   8      1.37200869    -0.97145810  -230.42987785    -0.00002362    -0.00000049  0.33D-06  0.13D-06  6  2  2314.34
   9      1.37217379    -0.97145804  -230.42987779     0.00000006    -0.00000010  0.66D-07  0.23D-07  6  3  2574.58
  10      1.37219431    -0.97145765  -230.42987740     0.00000039    -0.00000002  0.16D-07  0.64D-08  6  5  2835.10
  11      1.37223219    -0.97145852  -230.42987828    -0.00000088    -0.00000001  0.33D-08  0.17D-08  6  4  3095.60
  12      1.37224175    -0.97145856  -230.42987831    -0.00000003    -0.00000000  0.72D-09  0.63D-09  6  6  3349.05
  13      1.37224466    -0.97145851  -230.42987826     0.00000005    -0.00000000  0.15D-09  0.24D-09  6  1  3602.15
  14      1.37224201    -0.97145775  -230.42987750     0.00000076    -0.00000000  0.23D-10  0.73D-10  6  2  3855.38
  15      1.37223974    -0.97145731  -230.42987707     0.00000044    -0.00000000  0.64D-11  0.22D-10  6  3  4108.47
  16      1.37223787    -0.97145709  -230.42987684     0.00000022    -0.00000000  0.11D-11  0.39D-11  6  4  4361.47
  17      1.37223746    -0.97145703  -230.42987679     0.00000006    -0.00000000  0.28D-12  0.40D-12  6  5  4614.45
  18      1.37223744    -0.97145706  -230.42987682    -0.00000003    -0.00000000  0.83D-13  0.93D-13  6  6  4867.39
  19      1.37223746    -0.97145708  -230.42987683    -0.00000001    -0.00000000  0.38D-13  0.20D-13  6  1  5120.13
  20      1.37223747    -0.97145708  -230.42987684    -0.00000001    -0.00000000  0.12D-13  0.76D-14  6  3  5373.40

 Norm of t1 vector:      0.15906123      S-energy:    -0.00551925      T1 diagnostic:  0.01608171
                                                                       D1 diagnostic:  0.03974817
                                                                       D2 diagnostic:  0.19739311 (internal)
 Norm of t2 vector:      0.58901358      P-energy:    -0.96593783
                                         Alpha-Beta:  -0.75216481
                                         Alpha-Alpha: -0.11992922
                                         Beta-Beta:   -0.09384380

 Singles amplitudes (print threshold =  0.500E-01):

         I         SYM. A    A   T(IA) [Alpha-Alpha]

        15         4         1      0.06375645

 Doubles amplitudes (print threshold =  0.500E-01):

         I         J         SYM. A    SYM. B    A         B      T(IJ, AB) [Alpha-Beta]

         9         9         2         2         1         1     -0.07564094
        15        15         4         4         1         1     -0.07125991

 Spin contamination <S**2-Sz**2-Sz>     0.00285627


 RESULTS
 =======

  Reference energy                   -229.458419755589
  UCCSD singles energy                 -0.005519253976
  UCCSD pair energy                    -0.965937829377
  UCCSD correlation energy             -0.971457083353

 !RHF-UCCSD energy                   -230.429876838942

 Program statistics:

 Available memory in ccsd:              3999998039
 Min. memory needed in ccsd:             113659234
 Max. memory used in ccsd:               164972693
 Max. memory used in cckext:             133724225 (20 integral passes)
 Max. memory used in cckint:             265159116 ( 1 integral passes)



 **********************************************************************************************************************************
 DATASETS  * FILE   NREC   LENGTH (MB)   RECORD NAMES
              1      19    51282.34       500      610      700      900      950      970     1000      129      960     1100   
                                          VAR    BASINP    GEOM    SYMINP    ZMAT    AOBASIS   BASIS     P2S    ABASIS      S 
                                         1400     1410     1200     1210     1080     1600     1650     1300     1700   
                                           T        V       H0       H01     AOSYM     SMH    MOLCAS    ERIS     OPER   

              2       4        5.45       700     1000      520     2100   
                                         GEOM     BASIS   MCVARS     RHF  

 PROGRAMS   *        TOTAL      CCSD    HF-SCF       INT
 CPU TIMES  *      8147.33   5374.45   1218.27   1554.47
 REAL TIME  *      8797.41 SEC
 DISK USED  *       154.14 GB
 **********************************************************************************************************************************

 DO I                   =         2.00000000   


 PROGRAM * CCSD (Unrestricted open-shell coupled cluster)     Authors: C. Hampel, H.-J. Werner, 1991, M. Deegan, P.J. Knowles, 1992


 Convergence thresholds:  THRVAR = 1.00D-08  THRDEN = 1.00D-08

 Number of core orbitals:           6 (   4   0   2   0 )
 Number of closed-shell orbitals:  13 (   6   2   4   1 )
 Number of active  orbitals:        2 (   1   0   1   0 )
 Number of external orbitals:     745 ( 248 158 210 129 )

 Number of N-1 electron functions:              28
 Number of N-2 electron functions:             378
 Number of singly external CSFs:              6026
 Number of doubly external CSFs:          40616588
 Total number of CSFs:                    40622614

 Molecular orbitals read from record     2100.2  Type=RHF/CANONICAL  

 Integral transformation finished. Total CPU: 216.32 sec, npass=  1  Memory used: 265.16 MW

 Starting RMP2 calculation, locsing= 0

 ITER.      SQ.NORM     CORR.ENERGY   TOTAL ENERGY   ENERGY CHANGE        DEN1      VAR(S)    VAR(P)  DIIS     TIME
   1      1.32150457    -0.95654808  -230.41496783    -0.95654808    -0.00479019  0.51D-04  0.22D-02  1  1   253.20
   2      1.32727010    -0.96180783  -230.42022759    -0.00525976    -0.00001510  0.13D-05  0.89D-05  2  2   255.32
   3      1.32754159    -0.96193504  -230.42035480    -0.00012721    -0.00000008  0.29D-07  0.33D-07  3  3   257.62
   4      1.32754873    -0.96193612  -230.42035587    -0.00000107    -0.00000000  0.62D-09  0.28D-09  4  4   260.09
   5      1.32754889    -0.96193613  -230.42035589    -0.00000002    -0.00000000  0.13D-10  0.52D-11  5  5   262.75
   6      1.32754890    -0.96193614  -230.42035589    -0.00000001    -0.00000000  0.11D-12  0.64D-13  6  6   265.59

 Norm of t1 vector:      0.05578697      S-energy:    -0.00409493      T1 diagnostic:  0.00068743
 Norm of t2 vector:      0.56959346      P-energy:    -0.95784121
                                         Alpha-Beta:  -0.72078405
                                         Alpha-Alpha: -0.13177694
                                         Beta-Beta:   -0.10528022

 Spin contamination <S**2-Sz**2-Sz>     0.00068033
  Reference energy                   -229.458419755589
  RHF-RMP2 correlation energy          -0.961936138806
 !RHF-RMP2 energy                    -230.420355894395

 Starting UCCSD calculation

 ITER.      SQ.NORM     CORR.ENERGY   TOTAL ENERGY   ENERGY CHANGE        DEN1      VAR(S)    VAR(P)  DIIS     TIME
   1      1.31277126    -0.93814083  -230.39656059    -0.93814083    -0.02564666  0.51D-02  0.56D-02  1  1   519.05
   2      1.34087371    -0.96248193  -230.42090169    -0.02434110    -0.00287824  0.40D-03  0.11D-02  2  2   770.84
   3      1.35497096    -0.96805229  -230.42647204    -0.00557035    -0.00048247  0.23D-03  0.14D-03  3  3  1022.74
   4      1.36324712    -0.97030181  -230.42872157    -0.00224953    -0.00011412  0.56D-04  0.36D-04  4  4  1275.06
   5      1.36821481    -0.97111469  -230.42953444    -0.00081287    -0.00002762  0.20D-04  0.64D-05  5  5  1527.67
   6      1.37066706    -0.97135766  -230.42977742    -0.00024297    -0.00000661  0.45D-05  0.18D-05  6  6  1784.55
   7      1.37165214    -0.97143448  -230.42985423    -0.00007682    -0.00000185  0.13D-05  0.50D-06  6  1  2041.54
   8      1.37200869    -0.97145810  -230.42987785    -0.00002362    -0.00000049  0.33D-06  0.13D-06  6  2  2298.52
   9      1.37217379    -0.97145804  -230.42987779     0.00000006    -0.00000010  0.66D-07  0.23D-07  6  3  2555.64
  10      1.37219431    -0.97145765  -230.42987740     0.00000039    -0.00000002  0.16D-07  0.64D-08  6  5  2811.08
  11      1.37223219    -0.97145852  -230.42987828    -0.00000088    -0.00000001  0.33D-08  0.17D-08  6  4  3064.67
  12      1.37224175    -0.97145856  -230.42987831    -0.00000003    -0.00000000  0.72D-09  0.63D-09  6  6  3318.33
  13      1.37224466    -0.97145851  -230.42987826     0.00000005    -0.00000000  0.15D-09  0.24D-09  6  1  3571.84
  14      1.37224201    -0.97145775  -230.42987750     0.00000076    -0.00000000  0.23D-10  0.73D-10  6  2  3825.57
  15      1.37223974    -0.97145731  -230.42987707     0.00000044    -0.00000000  0.64D-11  0.22D-10  6  3  4079.09
  16      1.37223787    -0.97145709  -230.42987684     0.00000022    -0.00000000  0.11D-11  0.39D-11  6  4  4332.81
  17      1.37223746    -0.97145703  -230.42987679     0.00000006    -0.00000000  0.28D-12  0.40D-12  6  5  4586.53
  18      1.37223744    -0.97145706  -230.42987682    -0.00000003    -0.00000000  0.83D-13  0.93D-13  6  6  4839.84
  19      1.37223746    -0.97145708  -230.42987683    -0.00000001    -0.00000000  0.38D-13  0.20D-13  6  1  5092.85
  20      1.37223747    -0.97145708  -230.42987684    -0.00000001    -0.00000000  0.12D-13  0.76D-14  6  3  5351.04

 Norm of t1 vector:      0.15906123      S-energy:    -0.00551925      T1 diagnostic:  0.01608171
                                                                       D1 diagnostic:  0.03974817
                                                                       D2 diagnostic:  0.19739311 (internal)
 Norm of t2 vector:      0.58901358      P-energy:    -0.96593783
                                         Alpha-Beta:  -0.75216481
                                         Alpha-Alpha: -0.11992922
                                         Beta-Beta:   -0.09384380

 Singles amplitudes (print threshold =  0.500E-01):

         I         SYM. A    A   T(IA) [Alpha-Alpha]

        15         4         1      0.06375645

 Doubles amplitudes (print threshold =  0.500E-01):

         I         J         SYM. A    SYM. B    A         B      T(IJ, AB) [Alpha-Beta]

         9         9         2         2         1         1     -0.07564094
        15        15         4         4         1         1     -0.07125991

 Spin contamination <S**2-Sz**2-Sz>     0.00285627


 RESULTS
 =======

  Reference energy                   -229.458419755589
  UCCSD singles energy                 -0.005519253976
  UCCSD pair energy                    -0.965937829377
  UCCSD correlation energy             -0.971457083353

 !RHF-UCCSD energy                   -230.429876838942

 Program statistics:

 Available memory in ccsd:              3999998028
 Min. memory needed in ccsd:             113659234
 Max. memory used in ccsd:               164972693
 Max. memory used in cckext:             133724225 (20 integral passes)
 Max. memory used in cckint:             265159116 ( 1 integral passes)



 **********************************************************************************************************************************
 DATASETS  * FILE   NREC   LENGTH (MB)   RECORD NAMES
              1      19    51282.34       500      610      700      900      950      970     1000      129      960     1100   
                                          VAR    BASINP    GEOM    SYMINP    ZMAT    AOBASIS   BASIS     P2S    ABASIS      S 
                                         1400     1410     1200     1210     1080     1600     1650     1300     1700   
                                           T        V       H0       H01     AOSYM     SMH    MOLCAS    ERIS     OPER   

              2       4        5.45       700     1000      520     2100   
                                         GEOM     BASIS   MCVARS     RHF  

 PROGRAMS   *        TOTAL      CCSD      CCSD    HF-SCF       INT
 CPU TIMES  *     13499.45   5352.11   5374.45   1218.27   1554.47
 REAL TIME  *     14450.80 SEC
 DISK USED  *       154.14 GB
 **********************************************************************************************************************************

 DO I                   =         3.00000000   


 PROGRAM * CCSD (Unrestricted open-shell coupled cluster)     Authors: C. Hampel, H.-J. Werner, 1991, M. Deegan, P.J. Knowles, 1992


 Convergence thresholds:  THRVAR = 1.00D-08  THRDEN = 1.00D-08

 Number of core orbitals:           6 (   4   0   2   0 )
 Number of closed-shell orbitals:  13 (   6   2   4   1 )
 Number of active  orbitals:        2 (   1   0   1   0 )
 Number of external orbitals:     745 ( 248 158 210 129 )

 Number of N-1 electron functions:              28
 Number of N-2 electron functions:             378
 Number of singly external CSFs:              6026
 Number of doubly external CSFs:          40616588
 Total number of CSFs:                    40622614

 Molecular orbitals read from record     2100.2  Type=RHF/CANONICAL  

 Integral transformation finished. Total CPU: 213.60 sec, npass=  1  Memory used: 265.16 MW

 Starting RMP2 calculation, locsing= 0

 ITER.      SQ.NORM     CORR.ENERGY   TOTAL ENERGY   ENERGY CHANGE        DEN1      VAR(S)    VAR(P)  DIIS     TIME
   1      1.32150457    -0.95654808  -230.41496783    -0.95654808    -0.00479019  0.51D-04  0.22D-02  1  1   250.29
   2      1.32727010    -0.96180783  -230.42022759    -0.00525976    -0.00001510  0.13D-05  0.89D-05  2  2   252.39
   3      1.32754159    -0.96193504  -230.42035480    -0.00012721    -0.00000008  0.29D-07  0.33D-07  3  3   254.66
   4      1.32754873    -0.96193612  -230.42035587    -0.00000107    -0.00000000  0.62D-09  0.28D-09  4  4   257.11
   5      1.32754889    -0.96193613  -230.42035589    -0.00000002    -0.00000000  0.13D-10  0.52D-11  5  5   259.74
   6      1.32754890    -0.96193614  -230.42035589    -0.00000001    -0.00000000  0.11D-12  0.64D-13  6  6   262.55

 Norm of t1 vector:      0.05578697      S-energy:    -0.00409493      T1 diagnostic:  0.00068743
 Norm of t2 vector:      0.56959346      P-energy:    -0.95784121
                                         Alpha-Beta:  -0.72078405
                                         Alpha-Alpha: -0.13177694
                                         Beta-Beta:   -0.10528022

 Spin contamination <S**2-Sz**2-Sz>     0.00068033
  Reference energy                   -229.458419755589
  RHF-RMP2 correlation energy          -0.961936138806
 !RHF-RMP2 energy                    -230.420355894395

 Starting UCCSD calculation

 ITER.      SQ.NORM     CORR.ENERGY   TOTAL ENERGY   ENERGY CHANGE        DEN1      VAR(S)    VAR(P)  DIIS     TIME
   1      1.31277126    -0.93814083  -230.39656059    -0.93814083    -0.02564666  0.51D-02  0.56D-02  1  1   515.78
   2      1.34087371    -0.96248193  -230.42090169    -0.02434110    -0.00287824  0.40D-03  0.11D-02  2  2   767.14
   3      1.35497096    -0.96805229  -230.42647204    -0.00557035    -0.00048247  0.23D-03  0.14D-03  3  3  1018.73
   4      1.36324712    -0.97030181  -230.42872157    -0.00224953    -0.00011412  0.56D-04  0.36D-04  4  4  1270.40
   5      1.36821481    -0.97111469  -230.42953444    -0.00081287    -0.00002762  0.20D-04  0.64D-05  5  5  1522.49
   6      1.37066706    -0.97135766  -230.42977742    -0.00024297    -0.00000661  0.45D-05  0.18D-05  6  6  1774.87
   7      1.37165214    -0.97143448  -230.42985423    -0.00007682    -0.00000185  0.13D-05  0.50D-06  6  1  2027.17
   8      1.37200869    -0.97145810  -230.42987785    -0.00002362    -0.00000049  0.33D-06  0.13D-06  6  2  2279.44
   9      1.37217379    -0.97145804  -230.42987779     0.00000006    -0.00000010  0.66D-07  0.23D-07  6  3  2531.83
  10      1.37219431    -0.97145765  -230.42987740     0.00000039    -0.00000002  0.16D-07  0.64D-08  6  5  2784.15
  11      1.37223219    -0.97145852  -230.42987828    -0.00000088    -0.00000001  0.33D-08  0.17D-08  6  4  3036.47
  12      1.37224175    -0.97145856  -230.42987831    -0.00000003    -0.00000000  0.72D-09  0.63D-09  6  6  3288.80
  13      1.37224466    -0.97145851  -230.42987826     0.00000005    -0.00000000  0.15D-09  0.24D-09  6  1  3540.93
  14      1.37224201    -0.97145775  -230.42987750     0.00000076    -0.00000000  0.23D-10  0.73D-10  6  2  3793.35
  15      1.37223974    -0.97145731  -230.42987707     0.00000044    -0.00000000  0.64D-11  0.22D-10  6  3  4045.58
  16      1.37223787    -0.97145709  -230.42987684     0.00000022    -0.00000000  0.11D-11  0.39D-11  6  4  4297.87
  17      1.37223746    -0.97145703  -230.42987679     0.00000006    -0.00000000  0.28D-12  0.40D-12  6  5  4550.05
  18      1.37223744    -0.97145706  -230.42987682    -0.00000003    -0.00000000  0.83D-13  0.93D-13  6  6  4802.36
  19      1.37223746    -0.97145708  -230.42987683    -0.00000001    -0.00000000  0.38D-13  0.20D-13  6  1  5054.73
  20      1.37223747    -0.97145708  -230.42987684    -0.00000001    -0.00000000  0.12D-13  0.76D-14  6  3  5307.07

 Norm of t1 vector:      0.15906123      S-energy:    -0.00551925      T1 diagnostic:  0.01608171
                                                                       D1 diagnostic:  0.03974817
                                                                       D2 diagnostic:  0.19739311 (internal)
 Norm of t2 vector:      0.58901358      P-energy:    -0.96593783
                                         Alpha-Beta:  -0.75216481
                                         Alpha-Alpha: -0.11992922
                                         Beta-Beta:   -0.09384380

 Singles amplitudes (print threshold =  0.500E-01):

         I         SYM. A    A   T(IA) [Alpha-Alpha]

        15         4         1      0.06375645

 Doubles amplitudes (print threshold =  0.500E-01):

         I         J         SYM. A    SYM. B    A         B      T(IJ, AB) [Alpha-Beta]

         9         9         2         2         1         1     -0.07564094
        15        15         4         4         1         1     -0.07125991

 Spin contamination <S**2-Sz**2-Sz>     0.00285627


 RESULTS
 =======

  Reference energy                   -229.458419755589
  UCCSD singles energy                 -0.005519253976
  UCCSD pair energy                    -0.965937829377
  UCCSD correlation energy             -0.971457083353

 !RHF-UCCSD energy                   -230.429876838942

 Program statistics:

 Available memory in ccsd:              3999998017
 Min. memory needed in ccsd:             113659234
 Max. memory used in ccsd:               164972693
 Max. memory used in cckext:             133724225 (20 integral passes)
 Max. memory used in cckint:             265159116 ( 1 integral passes)



 **********************************************************************************************************************************
 DATASETS  * FILE   NREC   LENGTH (MB)   RECORD NAMES
              1      19    51282.34       500      610      700      900      950      970     1000      129      960     1100   
                                          VAR    BASINP    GEOM    SYMINP    ZMAT    AOBASIS   BASIS     P2S    ABASIS      S 
                                         1400     1410     1200     1210     1080     1600     1650     1300     1700   
                                           T        V       H0       H01     AOSYM     SMH    MOLCAS    ERIS     OPER   

              2       4        5.45       700     1000      520     2100   
                                         GEOM     BASIS   MCVARS     RHF  

 PROGRAMS   *        TOTAL      CCSD      CCSD      CCSD    HF-SCF       INT
 CPU TIMES  *     18807.56   5308.11   5352.11   5374.45   1218.27   1554.47
 REAL TIME  *     20058.69 SEC
 DISK USED  *       154.14 GB
 **********************************************************************************************************************************

 CCSD/cc-pV5Z energy=   -230.429876838942

            CCSD          HF-SCF
   -230.42987684   -229.45841976
 **********************************************************************************************************************************
 Molpro calculation terminated
